# vtk DataFile Version 3.0
two tetrahedra
ASCII

DATASET UNSTRUCTURED_GRID
POINTS 5 float
0 0 0
1 0.5 0
0 1 0
0.5 0.5 1
-0.5 0.5 1

CELLS 2 10
4 0 1 2 3
4 0 2 4 3

CELL_TYPES 2
10
10

POINT_DATA 5
SCALARS temperature float 1
LOOKUP_TABLE default
1.0 2.0 2.5 4.0 3.0
