# vtk DataFile Version 3.0
test dataset
ASCII

DATASET UNSTRUCTURED_GRID
POINTS 26 float
0. 0. 0.
0. 0. 0.5
0. 0. 1.
0. 0.5 0.
0. 0.5 0.5
0. 0.5 1.
0. 1. 0.
0. 1. 0.5
0. 1. 1.
0.5 0. 0.
0.5 0. 0.5
0.5 0. 1.
0.5 0.5 0.
0.5 0.5 1.
0.5 1. 0.
0.5 1. 0.5
0.5 1. 1.
1. 0. 0.
1. 0. 0.5
1. 0. 1.
1. 0.5 0.
1. 0.5 0.5
1. 0.5 1.
1. 1. 0.
1. 1. 0.5
1. 1. 1.

CELLS 43 215
4 9 0 10 12
4 13 1 11 2
4 13 24 15 25
4 13 21 15 24
4 15 6 3 7
4 15 3 12 4
4 10 1 13 4
4 9 20 12 21
4 12 10 9 21
4 11 13 10 1
4 17 20 9 21
4 13 16 15 4
4 18 21 10 22
4 9 18 17 21
4 3 15 14 6
4 1 2 13 5
4 10 18 9 21
4 16 4 13 5
4 12 21 20 24
4 15 21 12 24
4 13 22 21 25
4 21 24 13 25
4 13 15 16 25
4 11 19 10 22
4 10 19 18 22
4 10 21 13 22
4 10 13 11 22
4 3 4 15 7
4 15 4 16 7
4 20 23 12 24
4 14 15 12 24
4 12 23 14 24
4 16 7 4 8
4 16 4 5 8
4 13 4 1 5
4 12 15 14 3
4 12 3 0 4
4 15 21 13 4
4 13 21 10 4
4 12 21 15 4
4 10 21 12 4
4 12 0 10 4
4 0 1 10 4

CELL_TYPES 43
10
10
10
10
10
10
10
10
10
10
10
10
10
10
10
10
10
10
10
10
10
10
10
10
10
10
10
10
10
10
10
10
10
10
10
10
10
10
10
10
10
10
10

POINT_DATA 26
SCALARS temperature float 1
LOOKUP_TABLE default
0.66272558 0.22984659 0.01311888 0.34980629 0.47387713
0.05982362 0.73390025 0.3658921  0.13205512 0.76009181
0.73087124 0.48146729 0.27780485 0.23175069 0.47082731
0.42257209 0.66176174 0.61004667 0.14199202 0.21498805
0.53046048 0.60397734 0.09550089 0.00274978 0.59172632
0.82994327