# vtk DataFile Version 3.0
test dataset
ASCII

DATASET UNSTRUCTURED_GRID
POINTS 8 float
0. 0. 0.
1. 0. 0.
0. 1. 0.
1. 1. 0.
0. 0. 1.
1. 0. 1.
0. 1. 1.
1. 1. 1.

CELLS 6 30
4 0 1 2 6
4 0 6 4 1
4 1 4 5 6
4 1 3 2 6
4 1 7 3 6
4 1 5 7 6

CELL_TYPES 6
10
10
10
10
10
10

POINT_DATA 8
SCALARS temperature float 1
LOOKUP_TABLE default
0 1 0 1
0 1 0 1
