# vtk DataFile Version 3.0
one tetrahedron
ASCII

DATASET UNSTRUCTURED_GRID
POINTS 4 float
0 0 0
1 0.5 0
0 1 0
0.5 0.5 1

CELLS 1 5
4 0 1 2 3

CELL_TYPES 1
10

POINT_DATA 4
SCALARS temperature float 1
LOOKUP_TABLE default
1.0 3.0 2.0 4.0
