# vtk DataFile Version 3.0
test dataset
ASCII

DATASET UNSTRUCTURED_GRID
POINTS 278 float
0. 0. 0.
0. 0. 0.2
0. 0. 0.4
0. 0. 0.6
0. 0. 0.8
0. 0. 1.
0. 0.2 0.
0. 0.2 0.2
0. 0.2 0.4
0. 0.2 0.6
0. 0.2 0.8
0. 0.2 1.
0. 0.4 0.
0. 0.4 0.2
0. 0.4 0.4
0. 0.4 0.6
0. 0.4 0.8
0. 0.4 1.
0. 0.6 0.
0. 0.6 0.2
0. 0.6 0.4
0. 0.6 0.6
0. 0.6 0.8
0. 0.6 1.
0. 0.8 0.
0. 0.8 0.2
0. 0.8 0.4
0. 0.8 0.6
0. 0.8 0.8
0. 0.8 1.
0. 1. 0.
0. 1. 0.2
0. 1. 0.4
0. 1. 0.6
0. 1. 0.8
0. 1. 1.
0.2 0. 0.
0.2 0. 0.2
0.2 0. 0.4
0.2 0. 0.6
0.2 0. 0.8
0.2 0. 1.
0.2 0.2 0.
0.2 0.2 1.
0.2 0.4 0.
0.2 0.4 1.
0.2 0.6 0.
0.2 0.6 1.
0.2 0.8 0.
0.2 0.8 1.
0.2 1. 0.
0.2 1. 0.2
0.2 1. 0.4
0.2 1. 0.6
0.2 1. 0.8
0.2 1. 1.
0.4 0. 0.
0.4 0. 0.2
0.4 0. 0.4
0.4 0. 0.6
0.4 0. 0.8
0.4 0. 1.
0.4 0.2 0.
0.4 0.2 1.
0.4 0.4 0.
0.4 0.4 1.
0.4 0.6 0.
0.4 0.6 1.
0.4 0.8 0.
0.4 0.8 1.
0.4 1. 0.
0.4 1. 0.2
0.4 1. 0.4
0.4 1. 0.6
0.4 1. 0.8
0.4 1. 1.
0.6 0. 0.
0.6 0. 0.2
0.6 0. 0.4
0.6 0. 0.6
0.6 0. 0.8
0.6 0. 1.
0.6 0.2 0.
0.6 0.2 1.
0.6 0.4 0.
0.6 0.4 1.
0.6 0.6 0.
0.6 0.6 1.
0.6 0.8 0.
0.6 0.8 1.
0.6 1. 0.
0.6 1. 0.2
0.6 1. 0.4
0.6 1. 0.6
0.6 1. 0.8
0.6 1. 1.
0.8 0. 0.
0.8 0. 0.2
0.8 0. 0.4
0.8 0. 0.6
0.8 0. 0.8
0.8 0. 1.
0.8 0.2 0.
0.8 0.2 1.
0.8 0.4 0.
0.8 0.4 1.
0.8 0.6 0.
0.8 0.6 1.
0.8 0.8 0.
0.8 0.8 1.
0.8 1. 0.
0.8 1. 0.2
0.8 1. 0.4
0.8 1. 0.6
0.8 1. 0.8
0.8 1. 1.
1. 0. 0.
1. 0. 0.2
1. 0. 0.4
1. 0. 0.6
1. 0. 0.8
1. 0. 1.
1. 0.2 0.
1. 0.2 0.2
1. 0.2 0.4
1. 0.2 0.6
1. 0.2 0.8
1. 0.2 1.
1. 0.4 0.
1. 0.4 0.2
1. 0.4 0.4
1. 0.4 0.6
1. 0.4 0.8
1. 0.4 1.
1. 0.6 0.
1. 0.6 0.2
1. 0.6 0.4
1. 0.6 0.6
1. 0.6 0.8
1. 0.6 1.
1. 0.8 0.
1. 0.8 0.2
1. 0.8 0.4
1. 0.8 0.6
1. 0.8 0.8
1. 0.8 1.
1. 1. 0.
1. 1. 0.2
1. 1. 0.4
1. 1. 0.6
1. 1. 0.8
1. 1. 1.
0.5 0.5 0.5
0.7 0.7 0.3
0.7 0.7 0.7
0.3 0.7 0.3
0.7 0.3 0.3
0.7 0.3 0.7
0.3 0.7 0.7
0. 0. 0.1
0. 0.1 0.
0.3 0.3 0.3
0.3 0.3 0.7
0.77 0.5 0.5
0.5 0.77 0.5
0.5 0.5 0.23
0.5 0.5 0.77
0.5 0.23 0.5
0.23 0.5 0.5
1. 0.7 0.3
0.7 1. 0.3
0.8375 0.7 0.1625
0.5 0.7875 0.2125
0.7 0.8375 0.1625
0.8375 0.8375 0.3
1. 0.7 0.7
0.7 1. 0.7
0.8375 0.8375 0.7
0.7875 0.5 0.7875
0.5 0.7875 0.7875
0.7 0.7 1.
0.3 1. 0.3
0. 0.7 0.3
0.3 0.7 0.
0.2125 0.5 0.2125
0.1625 0.8375 0.3
0.3 0.8375 0.1625
0.1625 0.7 0.1625
0.7 0. 0.3
1. 0.3 0.3
0.7 0.3 0.
0.5 0.2125 0.2125
0.8375 0.1625 0.3
0.8375 0.3 0.1625
1. 0.3 0.7
0.7 0.3 1.
0.8375 0.1625 0.7
0.5 0.2125 0.7875
0.3 1. 0.7
0.3 0.7 1.
0.1625 0.8375 0.7
0.2125 0.5 0.7875
0.1625 0.7 0.8375
0.125 0.1 0.
0. 0.116667 0.116667
0.125 0. 0.1
0. 0.3 0.3
0.1625 0.1625 0.3
0.1625 0.3 0.1625
0.3 0.3 1.
0. 0.3 0.7
0.3 0. 0.7
0.1625 0.3 0.8375
0.3 0.1625 0.8375
0.1625 0.1625 0.7
0.827453 0.7 0.532358
0.827453 0.467642 0.3
0.827453 0.3 0.467642
0.3 0.827453 0.467642
0.635 0.635 0.53
0.47 0.635 0.365
0.635 0.47 0.365
0.47 0.635 0.635
0.635 0.47 0.635
0.47 0.365 0.635
0.3 0.172547 0.467642
0.47 0.365 0.365
0.408427 0.640785 0.172547
0.591573 0.827453 0.359215
0.591573 0.640785 0.172547
0.8375 0.7 0.8375
0.7 0.8375 0.8375
0.83175 0.323 0.83175
0.640785 0.408427 0.827453
0.827453 0.408427 0.640785
0.640785 0.591573 0.827453
0.323 0.83175 0.83175
0.408427 0.827453 0.640785
0.408427 0.640785 0.827453
0.591573 0.827453 0.640785
0.359215 0.408427 0.172547
0.172547 0.408427 0.359215
0.172547 0.591573 0.359215
0.323 0.16825 0.16825
0.677 0.16825 0.16825
0.591573 0.359215 0.172547
0.5 0.13165 0.361704
0.792105 0.149342 0.149342
0.7 0.1625 0.8375
0.408427 0.359215 0.827453
0.408427 0.172547 0.640785
0.591573 0.172547 0.640785
0.172547 0.408427 0.640785
0.172547 0.591573 0.640785
1. 1. 0.5
0.870078 0.870078 0.5
1. 0.5 0.
0.870078 0.5 0.129922
1. 0. 0.5
0.698901 0.161401 0.433105
0.870078 0.129922 0.5
0. 1. 0.5
0.129922 0.870078 0.5
0.325311 0.649531 0.47064
0.654812 0.325311 0.524079
0.340979 0.5 0.651038
0.325311 0.345188 0.524079
0. 0. 0.5
0.129922 0.129922 0.5
0.349335 0.5 0.334852
0.5 0.7 0.
0.7 0.5 1.
0.687804 0.797198 0.5
0.687804 0.5 0.202802
0.5 0. 0.7
0. 0.7 0.5
0.155836 0.304054 0.5
0.5 0.6 0.

CELLS 1062 5310
4 152 224 167 264
4 10 212 43 214
4 28 54 34 55
4 34 35 28 55
4 155 172 164 220
4 17 47 45 201
4 3 267 9 268
4 25 48 24 51
4 61 63 60 213
4 41 63 61 213
4 9 267 8 268
4 191 244 156 246
4 156 192 189 217
4 216 221 153 273
4 13 44 12 184
4 12 13 6 208
4 107 145 139 230
4 87 233 166 235
4 89 95 94 179
4 163 215 153 219
4 59 225 39 250
4 89 179 94 231
4 109 230 180 231
4 59 250 211 274
4 107 139 105 178
4 109 114 115 151
4 132 194 126 232
4 120 126 119 196
4 44 46 12 184
4 54 198 74 236
4 167 226 225 266
4 20 21 14 168
4 158 218 200 237
4 203 204 159 205
4 178 223 157 233
4 191 226 161 246
4 17 45 11 212
4 74 75 54 236
4 197 224 162 249
4 222 237 164 263
4 144 177 175 230
4 166 233 85 249
4 178 233 105 271
4 133 139 132 178
4 144 150 109 151
4 84 165 86 277
4 16 45 17 212
4 46 184 66 227
4 144 150 143 177
4 91 172 88 173
4 65 166 85 249
4 222 223 154 235
4 34 54 28 200
4 81 83 80 197
4 184 208 161 241
4 156 259 217 264
4 153 216 163 221
4 44 66 46 240
4 185 218 52 262
4 77 57 78 246
4 80 60 81 197
4 166 238 201 249
4 224 249 166 265
4 25 185 182 187
4 158 222 179 238
4 211 250 60 274
4 163 219 153 221
4 138 139 107 178
4 129 216 135 257
4 65 209 45 249
4 27 34 28 200
4 177 215 154 272
4 193 245 156 273
4 74 75 69 179
4 24 48 25 187
4 47 199 67 238
4 105 178 132 232
4 39 225 214 250
4 191 226 156 245
4 84 165 64 245
4 156 244 191 245
4 171 173 153 174
4 130 216 189 217
4 179 236 74 237
4 108 141 140 147
4 8 15 9 276
4 97 188 98 192
4 50 51 48 186
4 102 128 104 193
4 100 126 103 127
4 10 210 16 212
4 114 150 144 177
4 33 34 27 200
4 191 244 82 245
4 261 27 26 262
4 100 103 101 127
4 109 150 114 151
4 24 50 30 51
4 117 124 123 192
4 98 259 99 260
4 113 176 93 239
4 167 225 59 250
4 162 213 197 249
4 36 37 203 205
4 219 220 153 221
4 86 229 165 273
4 100 121 120 127
4 128 193 129 257
4 211 214 213 250
4 164 237 218 263
4 53 261 52 262
4 118 124 117 192
4 193 257 104 273
4 256 135 134 257
4 140 146 108 147
4 66 227 184 240
4 161 208 184 240
4 117 192 123 247
4 49 54 28 55
4 68 70 48 186
4 81 61 83 197
4 111 170 91 173
4 52 73 53 218
4 109 145 144 151
4 152 223 166 224
4 253 263 242 275
4 124 192 118 260
4 137 215 163 234
4 177 239 113 272
4 60 61 81 197
4 225 266 161 276
4 154 223 178 235
4 181 185 51 186
4 91 88 90 173
4 101 121 100 127
4 70 71 50 186
4 130 136 129 216
4 222 224 166 265
4 95 75 74 179
4 242 262 26 275
4 20 168 14 242
4 168 266 241 269
4 109 144 114 150
4 37 204 203 205
4 50 71 51 186
4 126 194 125 196
4 203 208 207 243
4 68 71 70 186
4 219 228 164 272
4 120 126 100 127
4 28 200 54 202
4 96 244 97 247
4 91 170 92 228
4 225 226 161 266
4 226 240 165 245
4 197 233 83 248
4 103 126 100 196
4 148 174 142 255
4 157 233 197 248
4 111 141 108 147
4 220 222 164 263
4 143 177 149 255
4 80 197 83 248
4 214 225 162 250
4 46 183 48 187
4 53 198 54 200
4 72 181 172 218
4 52 218 53 262
4 156 246 244 259
4 163 215 178 234
4 165 240 64 245
4 135 256 129 257
4 137 163 131 234
4 172 186 68 227
4 108 173 88 229
4 71 181 51 186
4 29 49 28 55
4 49 75 69 236
4 194 196 126 232
4 136 215 153 216
4 157 232 178 233
4 163 221 217 264
4 196 217 157 234
4 167 250 59 251
4 111 108 110 147
4 108 146 110 147
4 161 243 191 246
4 13 206 7 208
4 77 244 191 246
4 24 31 25 51
4 241 242 168 269
4 79 167 78 246
4 119 196 125 260
4 69 75 74 236
4 196 217 125 260
4 154 222 179 239
4 23 47 22 202
4 73 218 164 237
4 53 218 200 262
4 82 62 56 191
4 14 206 13 241
4 223 224 152 264
4 155 185 181 186
4 106 229 86 273
4 158 237 222 263
4 163 219 152 223
4 134 171 106 257
4 154 230 177 231
4 25 32 26 185
4 89 69 95 179
4 213 214 162 250
4 30 31 24 51
4 43 63 41 213
4 88 173 172 229
4 224 250 162 266
4 148 254 112 255
4 110 111 90 173
4 109 145 107 230
4 5 41 4 43
4 172 220 155 227
4 216 217 163 221
4 9 214 3 268
4 23 47 17 201
4 131 217 125 234
4 155 263 242 269
4 196 259 217 260
4 165 240 226 269
4 201 253 158 265
4 83 233 195 248
4 197 233 224 249
4 159 203 160 204
4 198 236 200 237
4 184 240 227 269
4 40 43 41 213
4 166 223 222 235
4 58 59 79 246
4 97 118 117 192
4 42 208 203 243
4 26 182 25 185
4 31 32 25 185
4 154 178 163 215
4 49 199 47 202
4 124 189 123 192
4 102 193 190 247
4 141 148 147 174
4 162 265 224 266
4 122 129 128 193
4 103 196 100 248
4 29 49 23 202
4 18 48 24 187
4 180 235 107 271
4 152 220 219 221
4 100 126 120 196
4 131 137 130 163
4 152 224 222 265
4 192 217 156 259
4 93 72 92 164
4 155 263 164 218
4 10 43 40 214
4 28 29 22 202
4 164 172 155 218
4 48 50 24 51
4 132 133 105 232
4 160 203 6 204
4 107 180 109 230
4 165 226 220 269
4 163 234 223 264
4 42 64 44 240
4 4 41 40 43
4 102 244 96 247
4 66 184 46 240
4 183 186 48 187
4 60 213 197 250
4 158 253 218 263
4 25 182 19 187
4 53 218 73 237
4 188 244 192 247
4 27 253 21 275
4 4 40 10 43
4 206 207 7 208
4 1 204 37 205
4 167 226 152 264
4 10 11 4 43
4 51 181 52 185
4 162 252 201 265
4 4 11 5 43
4 152 266 168 269
4 242 253 168 263
4 233 235 87 271
4 267 2 8 268
4 135 141 134 171
4 119 126 125 196
4 70 71 68 172
4 41 61 40 213
4 136 169 135 216
4 204 37 203 207
4 10 40 4 214
4 78 167 79 259
4 158 202 201 238
4 125 131 124 217
4 140 141 108 171
4 90 111 91 173
4 6 13 7 208
4 86 229 88 270
4 153 171 169 216
4 48 183 68 186
4 105 139 133 178
4 226 266 152 269
4 94 179 74 239
4 93 176 94 239
4 167 251 79 259
4 108 110 88 173
4 163 216 130 217
4 171 257 216 273
4 53 54 33 200
4 167 250 224 266
4 24 25 18 187
4 28 35 29 55
4 95 74 94 179
4 72 164 73 218
4 14 21 15 168
4 42 240 208 243
4 189 192 124 217
4 9 268 8 276
4 22 23 16 201
4 21 22 15 253
4 143 175 144 177
4 225 250 167 266
4 37 207 38 243
4 126 196 103 232
4 152 221 163 223
4 37 36 203 243
4 87 235 166 238
4 125 217 124 260
4 105 233 195 271
4 131 163 130 217
4 91 71 70 172
4 58 207 38 225
4 167 259 156 264
4 17 45 16 201
4 165 227 66 240
4 60 250 197 274
4 175 178 138 230
4 107 139 138 230
4 156 244 193 247
4 216 257 193 273
4 69 75 95 179
4 219 222 154 239
4 68 172 71 186
4 113 239 93 272
4 44 184 13 208
4 162 224 197 250
4 152 219 164 222
4 56 62 57 191
4 152 263 168 265
4 16 17 10 212
4 16 201 45 212
4 191 243 57 246
4 134 140 106 171
4 191 240 62 243
4 179 236 158 238
4 184 187 155 227
4 106 140 108 171
4 135 169 141 171
4 114 230 109 231
4 142 174 169 215
4 97 244 188 247
4 147 148 111 174
4 31 52 32 185
4 172 218 164 228
4 197 250 224 251
4 184 208 44 240
4 64 66 44 240
4 122 193 102 247
4 18 25 19 187
4 90 70 68 172
4 189 193 156 216
4 179 222 154 235
4 223 234 157 264
4 118 192 98 260
4 152 219 163 221
4 99 196 119 260
4 152 226 224 266
4 168 265 252 266
4 97 117 96 247
4 71 172 72 181
4 164 220 172 228
4 16 23 17 201
4 91 70 90 172
4 224 226 167 266
4 15 252 210 276
4 190 244 102 247
4 114 144 109 230
4 113 150 114 177
4 155 187 186 227
4 220 226 152 269
4 42 44 6 208
4 161 225 207 243
4 156 216 193 273
4 199 202 49 236
4 39 59 38 225
4 211 213 60 250
4 132 139 138 178
4 46 187 184 227
4 63 197 60 213
4 60 63 61 197
4 114 115 94 231
4 142 148 141 174
4 168 241 14 242
4 19 184 46 187
4 37 57 36 243
4 62 64 42 240
4 57 191 62 243
4 22 29 23 202
4 22 201 16 253
4 144 175 138 230
4 207 225 58 243
4 153 220 172 229
4 56 57 77 191
4 130 189 124 217
4 65 67 87 166
4 28 54 49 202
4 136 163 137 215
4 153 221 220 229
4 114 176 113 177
4 23 49 47 202
4 51 52 31 185
4 92 72 71 228
4 13 184 19 242
4 154 215 163 219
4 47 201 22 202
4 48 70 50 186
4 156 217 216 221
4 108 111 110 173
4 82 191 77 244
4 134 141 140 171
4 22 47 23 201
4 39 214 211 250
4 100 120 99 196
4 138 145 144 230
4 179 235 87 238
4 38 225 207 268
4 38 58 37 243
4 130 137 136 163
4 15 252 168 253
4 224 265 152 266
4 219 222 152 223
4 185 186 155 187
4 141 147 111 174
4 9 210 10 214
4 166 224 223 233
4 93 73 72 164
4 105 133 103 232
4 102 190 82 244
4 188 192 97 247
4 64 165 84 277
4 158 236 179 237
4 33 54 34 200
4 164 220 152 222
4 174 215 142 255
4 141 169 142 174
4 141 171 169 174
4 64 165 66 240
4 152 222 166 223
4 179 237 74 239
4 222 237 179 239
4 28 49 29 202
4 179 222 158 237
4 16 212 210 252
4 200 253 27 262
4 144 145 109 230
4 33 200 27 262
4 25 51 31 185
4 196 248 157 251
4 222 263 152 265
4 7 204 6 208
4 104 190 102 193
4 83 103 81 248
4 178 230 154 235
4 165 221 152 226
4 84 245 104 273
4 86 165 84 273
4 114 177 144 230
4 166 233 223 235
4 166 222 152 224
4 12 44 13 208
4 183 227 66 270
4 66 183 46 227
4 103 195 105 232
4 88 110 90 173
4 52 185 181 218
4 85 233 197 249
4 10 17 11 212
4 169 171 135 216
4 164 239 219 272
4 168 242 20 253
4 167 226 156 246
4 68 186 183 227
4 156 221 216 273
4 85 65 87 166
4 159 204 1 205
4 3 214 39 268
4 107 235 178 271
4 85 166 87 233
4 69 199 49 236
4 261 53 33 262
4 88 91 90 172
4 90 68 88 172
4 221 245 165 273
4 111 148 112 174
4 139 145 138 230
4 236 54 202 49
4 39 225 38 268
4 78 246 167 259
4 169 171 153 174
4 87 235 180 271
4 219 220 164 228
4 72 172 71 228
4 154 178 175 230
4 175 177 154 230
4 138 178 107 230
4 54 200 198 236
4 130 163 136 216
4 129 189 130 216
4 156 226 191 246
4 112 170 111 174
4 170 173 111 174
4 108 171 141 174
4 108 173 171 174
4 108 141 111 174
4 111 173 108 174
4 163 215 136 216
4 105 133 132 178
4 165 227 220 229
4 54 236 202 200
4 172 173 153 229
4 143 150 149 177
4 149 150 113 177
4 109 180 89 231
4 94 176 114 231
4 78 99 98 259
4 153 215 163 216
4 129 136 135 216
4 196 251 157 259
4 129 193 189 216
4 177 230 114 231
4 109 115 114 231
4 179 231 154 239
4 163 217 131 234
4 53 200 33 262
4 192 259 98 260
4 153 169 136 216
4 168 252 15 276
4 176 177 114 231
4 138 175 137 178
4 223 233 178 235
4 87 179 89 235
4 168 253 252 265
4 132 232 178 234
4 76 102 82 244
4 62 191 64 240
4 222 235 179 238
4 69 236 179 238
4 164 237 222 239
4 166 235 222 238
4 1 38 37 207
4 13 20 14 242
4 12 19 13 184
4 153 173 172 228
4 39 267 3 268
4 154 239 177 272
4 164 218 72 228
4 155 187 184 242
4 13 241 184 242
4 178 235 233 271
4 18 19 12 184
4 18 46 19 184
4 12 46 18 184
4 98 118 97 192
4 72 218 172 228
4 44 208 42 240
4 62 240 42 243
4 123 129 122 193
4 193 244 190 247
4 165 220 152 221
4 154 231 179 235
4 125 194 131 234
4 172 220 153 228
4 46 48 18 187
4 19 46 18 187
4 182 242 26 275
4 79 167 59 251
4 164 219 152 220
4 155 181 172 186
4 172 181 71 186
4 92 164 72 228
4 153 220 219 228
4 155 186 172 227
4 122 128 102 193
4 61 63 83 197
4 171 216 153 273
4 208 240 161 243
4 161 240 191 243
4 51 185 25 187
4 51 186 185 187
4 48 51 25 187
4 48 186 51 187
4 97 192 117 247
4 96 122 102 247
4 123 193 122 247
4 156 193 192 247
4 57 58 78 246
4 68 227 183 270
4 77 82 76 191
4 82 56 76 191
4 76 56 77 191
4 191 240 226 245
4 225 268 214 276
4 262 263 253 275
4 166 238 222 265
4 156 226 221 245
4 221 226 165 245
4 36 62 42 243
4 99 120 119 196
4 223 224 157 233
4 39 211 59 250
4 21 253 20 275
4 52 181 72 218
4 181 185 155 218
4 64 240 191 245
4 167 246 156 259
4 20 253 242 275
4 201 238 166 265
4 58 167 59 246
4 78 58 79 246
4 189 192 156 193
4 123 189 129 193
4 123 192 189 193
4 196 232 157 248
4 80 83 81 248
4 172 227 68 270
4 124 131 130 217
4 26 32 261 262
4 258 118 98 260
4 89 180 87 235
4 87 166 67 238
4 172 181 155 218
4 72 73 52 218
4 63 209 65 249
4 45 201 65 249
4 263 155 164 220
4 224 233 166 249
4 178 232 105 233
4 164 222 219 239
4 157 224 197 233
4 67 166 65 249
4 67 238 166 249
4 201 212 162 249
4 207 208 161 243
4 67 201 47 238
4 166 249 201 265
4 152 263 220 269
4 131 138 137 234
4 157 248 197 251
4 65 201 67 249
4 201 212 16 252
4 178 223 163 234
4 178 215 137 234
4 157 223 178 234
4 26 262 27 275
4 197 248 80 251
4 225 226 167 246
4 159 0 160 203
4 6 44 12 208
4 36 203 0 205
4 74 236 198 237
4 73 198 53 237
4 225 243 161 246
4 152 226 221 264
4 57 243 58 246
4 200 236 158 237
4 74 198 73 237
4 94 73 93 239
4 47 67 45 201
4 152 265 168 266
4 0 203 159 205
4 156 245 221 273
4 45 67 65 201
4 153 229 171 273
4 165 245 84 273
4 27 262 253 275
4 73 164 93 239
4 158 202 200 253
4 152 222 220 263
4 112 174 148 255
4 142 215 143 255
4 254 113 112 255
4 254 149 113 255
4 1 204 7 207
4 37 204 1 207
4 7 8 1 207
4 186 187 183 227
4 107 178 105 271
4 7 206 8 207
4 161 226 225 246
4 76 97 96 244
4 40 61 60 213
4 192 244 156 247
4 77 97 76 244
4 1 8 2 207
4 155 242 184 269
4 2 38 1 207
4 153 215 174 272
4 195 233 85 271
4 167 224 152 226
4 155 218 185 242
4 174 228 153 272
4 224 250 167 251
4 4 40 3 214
4 39 38 267 268
4 83 195 103 248
4 96 102 76 244
4 77 188 97 244
4 152 220 165 226
4 136 169 153 215
4 113 255 177 272
4 60 211 40 213
4 103 232 196 248
4 7 207 204 208
4 204 207 203 208
4 82 77 76 244
4 162 212 201 252
4 22 202 201 253
4 11 43 10 212
4 11 45 43 212
4 45 209 43 212
4 142 169 136 215
4 3 40 39 214
4 46 184 44 240
4 137 143 136 215
4 207 268 225 276
4 104 193 128 257
4 162 213 212 214
4 3 10 4 214
4 9 10 3 214
4 197 213 162 250
4 169 174 153 215
4 136 143 142 215
4 189 216 156 217
4 143 215 177 255
4 43 209 63 213
4 43 212 209 213
4 210 212 10 214
4 212 213 43 214
4 43 213 40 214
4 197 224 157 251
4 40 211 39 214
4 40 213 211 214
4 201 202 158 253
4 15 168 21 253
4 217 221 156 264
4 66 227 165 277
4 172 229 227 270
4 192 193 123 247
4 161 226 191 240
4 242 263 262 275
4 154 177 175 215
4 137 175 143 215
4 175 177 143 215
4 137 178 175 215
4 175 178 154 215
4 220 227 172 229
4 153 173 171 229
4 220 221 165 229
4 86 108 88 229
4 59 167 79 246
4 162 250 225 266
4 252 253 201 265
4 58 225 167 246
4 214 225 39 268
4 222 238 158 265
4 16 210 15 252
4 163 178 154 223
4 154 219 163 223
4 154 222 219 223
4 73 237 164 239
4 149 177 113 255
4 168 263 253 265
4 38 59 58 225
4 59 167 58 225
4 155 227 220 269
4 168 263 152 269
4 254 142 143 255
4 84 106 86 273
4 19 20 13 242
4 221 223 152 264
4 184 227 155 269
4 227 240 165 269
4 21 168 20 253
4 201 252 16 253
4 217 234 163 264
4 221 229 153 273
4 142 254 148 255
4 20 242 182 275
4 99 259 196 260
4 258 124 118 260
4 124 217 192 260
4 183 187 46 227
4 77 191 57 246
4 256 106 104 257
4 134 106 256 257
4 135 216 171 257
4 19 182 20 242
4 92 71 91 228
4 71 172 91 228
4 153 174 173 228
4 173 174 170 228
4 92 170 112 228
4 170 174 112 228
4 172 173 91 228
4 91 173 170 228
4 188 246 78 259
4 244 246 188 259
4 58 243 225 246
4 106 108 86 229
4 106 171 108 229
4 171 173 108 229
4 89 115 109 231
4 89 94 95 231
4 94 115 95 231
4 95 115 89 231
4 138 178 137 234
4 178 232 157 234
4 126 133 132 232
4 103 127 126 232
4 103 133 127 232
4 127 133 126 232
4 201 238 67 249
4 85 195 83 233
4 83 197 85 233
4 74 179 69 236
4 200 202 158 236
4 215 219 154 272
4 105 232 195 233
4 132 138 131 234
4 132 178 138 234
4 131 194 132 234
4 194 232 132 234
4 157 232 196 234
4 196 232 194 234
4 125 196 194 234
4 125 217 196 234
4 177 255 215 272
4 219 239 154 272
4 153 219 215 272
4 180 230 107 235
4 107 230 178 235
4 180 231 230 235
4 230 231 154 235
4 89 231 180 235
4 179 231 89 235
4 93 239 164 272
4 153 228 219 272
4 54 55 49 236
4 54 75 55 236
4 55 75 49 236
4 198 200 53 237
4 200 218 53 237
4 87 67 89 238
4 89 179 87 238
4 67 69 89 238
4 69 179 89 238
4 67 199 69 238
4 199 236 69 238
4 158 236 202 238
4 202 236 199 238
4 201 202 47 238
4 47 202 199 238
4 113 177 176 239
4 154 231 177 239
4 177 231 176 239
4 94 231 179 239
4 176 231 94 239
4 256 128 129 257
4 135 171 134 257
4 193 216 129 257
4 94 74 73 239
4 74 237 73 239
4 38 207 58 243
4 37 58 57 243
4 206 208 13 241
4 13 208 184 241
4 161 208 207 241
4 207 208 206 241
4 227 270 229 277
4 66 270 227 277
4 220 227 165 269
4 163 223 221 264
4 220 263 155 269
4 14 241 13 242
4 182 187 185 242
4 185 187 155 242
4 15 210 9 276
4 182 185 26 242
4 184 187 19 242
4 19 187 182 242
4 104 128 256 257
4 143 149 254 255
4 36 57 56 243
4 57 62 56 243
4 56 62 36 243
4 203 6 208 42
4 42 203 36 243
4 6 203 208 204
4 84 64 62 245
4 64 191 62 245
4 84 62 82 245
4 62 191 82 245
4 82 190 84 245
4 82 244 190 245
4 190 244 193 245
4 193 244 156 245
4 84 190 104 245
4 190 193 104 245
4 78 188 77 246
4 188 244 77 246
4 96 117 116 247
4 117 123 116 247
4 116 122 96 247
4 116 123 122 247
4 88 229 172 270
4 195 232 103 248
4 81 101 80 248
4 81 103 101 248
4 80 101 100 248
4 101 103 100 248
4 195 233 232 248
4 232 233 157 248
4 63 65 85 249
4 63 213 209 249
4 197 213 63 249
4 209 213 212 249
4 212 213 162 249
4 209 212 45 249
4 45 212 201 249
4 83 63 85 249
4 83 197 63 249
4 85 197 83 249
4 119 258 99 260
4 258 98 99 260
4 80 100 79 251
4 80 248 100 251
4 119 125 258 260
4 125 124 258 260
4 217 259 192 260
4 79 100 99 251
4 100 196 99 251
4 100 248 196 251
4 162 214 212 252
4 212 214 210 252
4 229 270 86 277
4 21 28 22 253
4 28 202 22 253
4 218 237 158 263
4 88 172 68 270
4 37 203 207 243
4 15 22 16 253
4 16 252 15 253
4 27 28 21 253
4 27 200 28 253
4 200 202 28 253
4 218 242 155 263
4 85 233 87 271
4 165 229 221 273
4 104 245 193 273
4 79 251 59 274
4 14 15 8 276
4 80 251 79 274
4 59 251 250 274
4 60 197 80 274
4 250 251 197 274
4 161 266 241 276
4 197 251 80 274
4 79 99 78 259
4 79 251 99 259
4 98 188 78 259
4 98 192 188 259
4 156 244 192 259
4 192 244 188 259
4 33 27 261 262
4 99 251 196 259
4 261 32 52 262
4 32 185 52 262
4 26 185 32 262
4 185 242 218 262
4 26 242 185 262
4 200 218 158 262
4 218 253 158 262
4 158 253 200 262
4 14 241 168 276
4 14 168 15 276
4 214 268 9 276
4 241 266 168 276
4 168 266 252 276
4 253 262 218 263
4 218 262 242 263
4 157 234 217 264
4 157 224 223 264
4 221 226 156 264
4 156 226 167 264
4 157 217 196 264
4 217 259 196 264
4 196 259 157 264
4 157 259 251 264
4 251 259 167 264
4 157 251 224 264
4 224 251 167 264
4 158 238 201 265
4 253 263 158 265
4 158 263 222 265
4 162 249 224 265
4 201 249 162 265
4 252 265 162 266
4 242 263 168 269
4 66 165 64 277
4 184 242 241 269
4 165 229 86 277
4 267 38 2 268
4 227 229 165 277
4 38 207 2 268
4 2 207 8 268
4 161 240 184 269
4 184 241 161 269
4 226 240 161 269
4 241 266 161 269
4 161 266 226 269
4 215 255 174 272
4 93 164 92 272
4 164 228 92 272
4 92 113 93 272
4 92 228 112 272
4 112 228 174 272
4 174 255 112 272
4 112 113 92 272
4 112 255 113 272
4 171 229 106 273
4 106 257 171 273
4 104 106 84 273
4 104 257 106 273
4 214 252 162 276
4 252 266 162 276
4 210 214 9 276
4 210 252 214 276
4 8 206 14 276
4 206 241 14 276
4 8 268 207 276
4 207 225 161 276
4 161 241 207 276
4 162 225 214 276
4 162 266 225 276
4 8 207 206 276
4 207 241 206 276

CELL_TYPES 1062
10
10
10
10
10
10
10
10
10
10
10
10
10
10
10
10
10
10
10
10
10
10
10
10
10
10
10
10
10
10
10
10
10
10
10
10
10
10
10
10
10
10
10
10
10
10
10
10
10
10
10
10
10
10
10
10
10
10
10
10
10
10
10
10
10
10
10
10
10
10
10
10
10
10
10
10
10
10
10
10
10
10
10
10
10
10
10
10
10
10
10
10
10
10
10
10
10
10
10
10
10
10
10
10
10
10
10
10
10
10
10
10
10
10
10
10
10
10
10
10
10
10
10
10
10
10
10
10
10
10
10
10
10
10
10
10
10
10
10
10
10
10
10
10
10
10
10
10
10
10
10
10
10
10
10
10
10
10
10
10
10
10
10
10
10
10
10
10
10
10
10
10
10
10
10
10
10
10
10
10
10
10
10
10
10
10
10
10
10
10
10
10
10
10
10
10
10
10
10
10
10
10
10
10
10
10
10
10
10
10
10
10
10
10
10
10
10
10
10
10
10
10
10
10
10
10
10
10
10
10
10
10
10
10
10
10
10
10
10
10
10
10
10
10
10
10
10
10
10
10
10
10
10
10
10
10
10
10
10
10
10
10
10
10
10
10
10
10
10
10
10
10
10
10
10
10
10
10
10
10
10
10
10
10
10
10
10
10
10
10
10
10
10
10
10
10
10
10
10
10
10
10
10
10
10
10
10
10
10
10
10
10
10
10
10
10
10
10
10
10
10
10
10
10
10
10
10
10
10
10
10
10
10
10
10
10
10
10
10
10
10
10
10
10
10
10
10
10
10
10
10
10
10
10
10
10
10
10
10
10
10
10
10
10
10
10
10
10
10
10
10
10
10
10
10
10
10
10
10
10
10
10
10
10
10
10
10
10
10
10
10
10
10
10
10
10
10
10
10
10
10
10
10
10
10
10
10
10
10
10
10
10
10
10
10
10
10
10
10
10
10
10
10
10
10
10
10
10
10
10
10
10
10
10
10
10
10
10
10
10
10
10
10
10
10
10
10
10
10
10
10
10
10
10
10
10
10
10
10
10
10
10
10
10
10
10
10
10
10
10
10
10
10
10
10
10
10
10
10
10
10
10
10
10
10
10
10
10
10
10
10
10
10
10
10
10
10
10
10
10
10
10
10
10
10
10
10
10
10
10
10
10
10
10
10
10
10
10
10
10
10
10
10
10
10
10
10
10
10
10
10
10
10
10
10
10
10
10
10
10
10
10
10
10
10
10
10
10
10
10
10
10
10
10
10
10
10
10
10
10
10
10
10
10
10
10
10
10
10
10
10
10
10
10
10
10
10
10
10
10
10
10
10
10
10
10
10
10
10
10
10
10
10
10
10
10
10
10
10
10
10
10
10
10
10
10
10
10
10
10
10
10
10
10
10
10
10
10
10
10
10
10
10
10
10
10
10
10
10
10
10
10
10
10
10
10
10
10
10
10
10
10
10
10
10
10
10
10
10
10
10
10
10
10
10
10
10
10
10
10
10
10
10
10
10
10
10
10
10
10
10
10
10
10
10
10
10
10
10
10
10
10
10
10
10
10
10
10
10
10
10
10
10
10
10
10
10
10
10
10
10
10
10
10
10
10
10
10
10
10
10
10
10
10
10
10
10
10
10
10
10
10
10
10
10
10
10
10
10
10
10
10
10
10
10
10
10
10
10
10
10
10
10
10
10
10
10
10
10
10
10
10
10
10
10
10
10
10
10
10
10
10
10
10
10
10
10
10
10
10
10
10
10
10
10
10
10
10
10
10
10
10
10
10
10
10
10
10
10
10
10
10
10
10
10
10
10
10
10
10
10
10
10
10
10
10
10
10
10
10
10
10
10
10
10
10
10
10
10
10
10
10
10
10
10
10
10
10
10
10
10
10
10
10
10
10
10
10
10
10
10
10
10
10
10
10
10
10
10
10
10
10
10
10
10
10
10
10
10
10
10
10
10
10
10
10
10
10
10
10
10
10
10
10
10
10
10
10
10
10
10
10
10
10
10
10
10
10
10
10
10
10
10
10
10
10
10
10
10
10
10
10
10
10
10
10
10
10
10
10
10
10
10
10
10
10
10
10
10
10
10
10
10
10
10
10
10
10
10
10
10
10
10
10
10
10
10
10
10
10
10
10
10
10
10
10
10
10
10
10
10
10
10
10
10
10
10
10
10
10
10
10
10
10
10
10
10
10
10
10
10
10
10
10
10
10
10
10
10
10
10
10
10
10
10
10
10
10
10
10
10
10
10
10
10
10
10
10
10
10
10
10
10
10
10
10
10
10
10
10
10
10
10
10
10
10
10
10
10
10
10
10
10
10
10
10
10
10
10
10
10
10
10
10
10
10
10
10
10
10
10
10
10
10
10
10
10
10
10
10
10
10
10
10
10
10
10
10
10
10
10
10

POINT_DATA 278
SCALARS temperature float 1
LOOKUP_TABLE default
0. 0. 0. 0. 0.
0. 0. 0. 0. 0.
0. 0. 0. 0. 0.
0. 0. 0. 0. 0.
0. 0. 0. 0. 0.
0. 0. 0. 0. 0.
0. 0. 0. 0. 0.
0. 0. 0. 0. 0.
0. 0. 0. 0. 0.
0. 0. 0. 0. 0.
0. 0. 0. 0. 0.
0. 0. 0. 0. 0.
0. 0. 0. 0. 0.
0. 0. 0. 0. 0.
0. 0. 0. 0. 0.
0. 0. 0. 0. 0.
0. 0. 0. 0. 0.
0. 0. 0. 0. 0.
0. 0. 0. 0. 0.
0. 0. 0. 0. 0.
0. 0. 0. 0. 0.
0. 0. 0. 0. 0.
0. 0. 0. 0. 0.
0. 0. 0. 0. 0.
0. 0. 0. 0. 0.
0. 0. 0. 0. 0.
0. 0. 0. 0. 0.
0. 0. 0. 0. 0.
0. 0. 0. 0. 0.
0. 0. 0. 0. 0.
0. 0. 1. 0. 0.
0. 0. 0. 0. 0.
0. 0. 0. 0.3 0.3
0.3 0.3 0.3 0.3 0.
0. 0. 0. 0. 0.
0. 0. 0. 0. 0.
0. 0. 0. 0. 0.
0. 0. 0. 0. 0.
0. 0. 0. 0. 0.
0. 0. 0. 0. 0.
0. 0. 0. 0. 0.
0. 0. 0. 0. 0.
0. 0. 0. 0. 0.
0. 0. 0. 0. 1.
1. 1. 1. 1. 1.
0. 1. 0. 0. 0.
0. 0. 0. 0. 0.
0. 0. 0. 0. 0.
0. 0. 0. 0. 0.
0. 0. 0. 0. 0.
0. 0. 0. 0. 0.
0. 0. 0. 0. 0.
0. 0. 0. 0.681861 0.653456
0.806824 0.653456 0. 0. 0.76452
0. 0. 0. 0. 0.
0. 0. 0.