# vtk DataFile Version 3.0
test dataset
ASCII

DATASET UNSTRUCTURED_GRID
POINTS 1800 float
0. 0. 0.
0. 0. 0.1
0. 0. 0.2
0. 0. 0.3
0. 0. 0.4
0. 0. 0.5
0. 0. 0.6
0. 0. 0.7
0. 0. 0.8
0. 0. 0.9
0. 0. 1.
0. 0.1 0.
0. 0.1 0.1
0. 0.1 0.2
0. 0.1 0.3
0. 0.1 0.4
0. 0.1 0.5
0. 0.1 0.6
0. 0.1 0.7
0. 0.1 0.8
0. 0.1 0.9
0. 0.1 1.
0. 0.2 0.
0. 0.2 0.1
0. 0.2 0.2
0. 0.2 0.3
0. 0.2 0.4
0. 0.2 0.5
0. 0.2 0.6
0. 0.2 0.7
0. 0.2 0.8
0. 0.2 0.9
0. 0.2 1.
0. 0.3 0.
0. 0.3 0.1
0. 0.3 0.2
0. 0.3 0.3
0. 0.3 0.4
0. 0.3 0.5
0. 0.3 0.6
0. 0.3 0.7
0. 0.3 0.8
0. 0.3 0.9
0. 0.3 1.
0. 0.4 0.
0. 0.4 0.1
0. 0.4 0.2
0. 0.4 0.3
0. 0.4 0.4
0. 0.4 0.5
0. 0.4 0.6
0. 0.4 0.7
0. 0.4 0.8
0. 0.4 0.9
0. 0.4 1.
0. 0.5 0.
0. 0.5 0.1
0. 0.5 0.2
0. 0.5 0.3
0. 0.5 0.4
0. 0.5 0.5
0. 0.5 0.6
0. 0.5 0.7
0. 0.5 0.8
0. 0.5 0.9
0. 0.5 1.
0. 0.6 0.
0. 0.6 0.1
0. 0.6 0.2
0. 0.6 0.3
0. 0.6 0.4
0. 0.6 0.5
0. 0.6 0.6
0. 0.6 0.7
0. 0.6 0.8
0. 0.6 0.9
0. 0.6 1.
0. 0.7 0.
0. 0.7 0.1
0. 0.7 0.2
0. 0.7 0.3
0. 0.7 0.4
0. 0.7 0.5
0. 0.7 0.6
0. 0.7 0.7
0. 0.7 0.8
0. 0.7 0.9
0. 0.7 1.
0. 0.8 0.
0. 0.8 0.1
0. 0.8 0.2
0. 0.8 0.3
0. 0.8 0.4
0. 0.8 0.5
0. 0.8 0.6
0. 0.8 0.7
0. 0.8 0.8
0. 0.8 0.9
0. 0.8 1.
0. 0.9 0.
0. 0.9 0.1
0. 0.9 0.2
0. 0.9 0.3
0. 0.9 0.4
0. 0.9 0.5
0. 0.9 0.6
0. 0.9 0.7
0. 0.9 0.8
0. 0.9 0.9
0. 0.9 1.
0. 1. 0.
0. 1. 0.1
0. 1. 0.2
0. 1. 0.3
0. 1. 0.4
0. 1. 0.5
0. 1. 0.6
0. 1. 0.7
0. 1. 0.8
0. 1. 0.9
0. 1. 1.
0.1 0. 0.
0.1 0. 0.1
0.1 0. 0.2
0.1 0. 0.3
0.1 0. 0.4
0.1 0. 0.5
0.1 0. 0.6
0.1 0. 0.7
0.1 0. 0.8
0.1 0. 0.9
0.1 0. 1.
0.1 0.1 0.
0.1 0.1 1.
0.1 0.2 0.
0.1 0.2 1.
0.1 0.3 0.
0.1 0.3 1.
0.1 0.4 0.
0.1 0.4 1.
0.1 0.5 0.
0.1 0.5 1.
0.1 0.6 0.
0.1 0.6 1.
0.1 0.7 0.
0.1 0.7 1.
0.1 0.8 0.
0.1 0.8 1.
0.1 0.9 0.
0.1 0.9 1.
0.1 1. 0.
0.1 1. 0.1
0.1 1. 0.2
0.1 1. 0.3
0.1 1. 0.4
0.1 1. 0.5
0.1 1. 0.6
0.1 1. 0.7
0.1 1. 0.8
0.1 1. 0.9
0.1 1. 1.
0.2 0. 0.
0.2 0. 0.1
0.2 0. 0.2
0.2 0. 0.3
0.2 0. 0.4
0.2 0. 0.5
0.2 0. 0.6
0.2 0. 0.7
0.2 0. 0.8
0.2 0. 0.9
0.2 0. 1.
0.2 0.1 0.
0.2 0.1 1.
0.2 0.2 0.
0.2 0.2 1.
0.2 0.3 0.
0.2 0.3 1.
0.2 0.4 0.
0.2 0.4 1.
0.2 0.5 0.
0.2 0.5 1.
0.2 0.6 0.
0.2 0.6 1.
0.2 0.7 0.
0.2 0.7 1.
0.2 0.8 0.
0.2 0.8 1.
0.2 0.9 0.
0.2 0.9 1.
0.2 1. 0.
0.2 1. 0.1
0.2 1. 0.2
0.2 1. 0.3
0.2 1. 0.4
0.2 1. 0.5
0.2 1. 0.6
0.2 1. 0.7
0.2 1. 0.8
0.2 1. 0.9
0.2 1. 1.
0.3 0. 0.
0.3 0. 0.1
0.3 0. 0.2
0.3 0. 0.3
0.3 0. 0.4
0.3 0. 0.5
0.3 0. 0.6
0.3 0. 0.7
0.3 0. 0.8
0.3 0. 0.9
0.3 0. 1.
0.3 0.1 0.
0.3 0.1 1.
0.3 0.2 0.
0.3 0.2 1.
0.3 0.3 0.
0.3 0.3 1.
0.3 0.4 0.
0.3 0.4 1.
0.3 0.5 0.
0.3 0.5 1.
0.3 0.6 0.
0.3 0.6 1.
0.3 0.7 0.
0.3 0.7 1.
0.3 0.8 0.
0.3 0.8 1.
0.3 0.9 0.
0.3 0.9 1.
0.3 1. 0.
0.3 1. 0.1
0.3 1. 0.2
0.3 1. 0.3
0.3 1. 0.4
0.3 1. 0.5
0.3 1. 0.6
0.3 1. 0.7
0.3 1. 0.8
0.3 1. 0.9
0.3 1. 1.
0.4 0. 0.
0.4 0. 0.1
0.4 0. 0.2
0.4 0. 0.3
0.4 0. 0.4
0.4 0. 0.5
0.4 0. 0.6
0.4 0. 0.7
0.4 0. 0.8
0.4 0. 0.9
0.4 0. 1.
0.4 0.1 0.
0.4 0.1 1.
0.4 0.2 0.
0.4 0.2 1.
0.4 0.3 0.
0.4 0.3 1.
0.4 0.4 0.
0.4 0.4 1.
0.4 0.5 0.
0.4 0.5 1.
0.4 0.6 0.
0.4 0.6 1.
0.4 0.7 0.
0.4 0.7 1.
0.4 0.8 0.
0.4 0.8 1.
0.4 0.9 0.
0.4 0.9 1.
0.4 1. 0.
0.4 1. 0.1
0.4 1. 0.2
0.4 1. 0.3
0.4 1. 0.4
0.4 1. 0.5
0.4 1. 0.6
0.4 1. 0.7
0.4 1. 0.8
0.4 1. 0.9
0.4 1. 1.
0.5 0. 0.
0.5 0. 0.1
0.5 0. 0.2
0.5 0. 0.3
0.5 0. 0.4
0.5 0. 0.5
0.5 0. 0.6
0.5 0. 0.7
0.5 0. 0.8
0.5 0. 0.9
0.5 0. 1.
0.5 0.1 0.
0.5 0.1 1.
0.5 0.2 0.
0.5 0.2 1.
0.5 0.3 0.
0.5 0.3 1.
0.5 0.4 0.
0.5 0.4 1.
0.5 0.5 0.
0.5 0.5 1.
0.5 0.6 0.
0.5 0.6 1.
0.5 0.7 0.
0.5 0.7 1.
0.5 0.8 0.
0.5 0.8 1.
0.5 0.9 0.
0.5 0.9 1.
0.5 1. 0.
0.5 1. 0.1
0.5 1. 0.2
0.5 1. 0.3
0.5 1. 0.4
0.5 1. 0.5
0.5 1. 0.6
0.5 1. 0.7
0.5 1. 0.8
0.5 1. 0.9
0.5 1. 1.
0.6 0. 0.
0.6 0. 0.1
0.6 0. 0.2
0.6 0. 0.3
0.6 0. 0.4
0.6 0. 0.5
0.6 0. 0.6
0.6 0. 0.7
0.6 0. 0.8
0.6 0. 0.9
0.6 0. 1.
0.6 0.1 0.
0.6 0.1 1.
0.6 0.2 0.
0.6 0.2 1.
0.6 0.3 0.
0.6 0.3 1.
0.6 0.4 0.
0.6 0.4 1.
0.6 0.5 0.
0.6 0.5 1.
0.6 0.6 0.
0.6 0.6 1.
0.6 0.7 0.
0.6 0.7 1.
0.6 0.8 0.
0.6 0.8 1.
0.6 0.9 0.
0.6 0.9 1.
0.6 1. 0.
0.6 1. 0.1
0.6 1. 0.2
0.6 1. 0.3
0.6 1. 0.4
0.6 1. 0.5
0.6 1. 0.6
0.6 1. 0.7
0.6 1. 0.8
0.6 1. 0.9
0.6 1. 1.
0.7 0. 0.
0.7 0. 0.1
0.7 0. 0.2
0.7 0. 0.3
0.7 0. 0.4
0.7 0. 0.5
0.7 0. 0.6
0.7 0. 0.7
0.7 0. 0.8
0.7 0. 0.9
0.7 0. 1.
0.7 0.1 0.
0.7 0.1 1.
0.7 0.2 0.
0.7 0.2 1.
0.7 0.3 0.
0.7 0.3 1.
0.7 0.4 0.
0.7 0.4 1.
0.7 0.5 0.
0.7 0.5 1.
0.7 0.6 0.
0.7 0.6 1.
0.7 0.7 0.
0.7 0.7 1.
0.7 0.8 0.
0.7 0.8 1.
0.7 0.9 0.
0.7 0.9 1.
0.7 1. 0.
0.7 1. 0.1
0.7 1. 0.2
0.7 1. 0.3
0.7 1. 0.4
0.7 1. 0.5
0.7 1. 0.6
0.7 1. 0.7
0.7 1. 0.8
0.7 1. 0.9
0.7 1. 1.
0.8 0. 0.
0.8 0. 0.1
0.8 0. 0.2
0.8 0. 0.3
0.8 0. 0.4
0.8 0. 0.5
0.8 0. 0.6
0.8 0. 0.7
0.8 0. 0.8
0.8 0. 0.9
0.8 0. 1.
0.8 0.1 0.
0.8 0.1 1.
0.8 0.2 0.
0.8 0.2 1.
0.8 0.3 0.
0.8 0.3 1.
0.8 0.4 0.
0.8 0.4 1.
0.8 0.5 0.
0.8 0.5 1.
0.8 0.6 0.
0.8 0.6 1.
0.8 0.7 0.
0.8 0.7 1.
0.8 0.8 0.
0.8 0.8 1.
0.8 0.9 0.
0.8 0.9 1.
0.8 1. 0.
0.8 1. 0.1
0.8 1. 0.2
0.8 1. 0.3
0.8 1. 0.4
0.8 1. 0.5
0.8 1. 0.6
0.8 1. 0.7
0.8 1. 0.8
0.8 1. 0.9
0.8 1. 1.
0.9 0. 0.
0.9 0. 0.1
0.9 0. 0.2
0.9 0. 0.3
0.9 0. 0.4
0.9 0. 0.5
0.9 0. 0.6
0.9 0. 0.7
0.9 0. 0.8
0.9 0. 0.9
0.9 0. 1.
0.9 0.1 0.
0.9 0.1 1.
0.9 0.2 0.
0.9 0.2 1.
0.9 0.3 0.
0.9 0.3 1.
0.9 0.4 0.
0.9 0.4 1.
0.9 0.5 0.
0.9 0.5 1.
0.9 0.6 0.
0.9 0.6 1.
0.9 0.7 0.
0.9 0.7 1.
0.9 0.8 0.
0.9 0.8 1.
0.9 0.9 0.
0.9 0.9 1.
0.9 1. 0.
0.9 1. 0.1
0.9 1. 0.2
0.9 1. 0.3
0.9 1. 0.4
0.9 1. 0.5
0.9 1. 0.6
0.9 1. 0.7
0.9 1. 0.8
0.9 1. 0.9
0.9 1. 1.
1. 0. 0.
1. 0. 0.1
1. 0. 0.2
1. 0. 0.3
1. 0. 0.4
1. 0. 0.5
1. 0. 0.6
1. 0. 0.7
1. 0. 0.8
1. 0. 0.9
1. 0. 1.
1. 0.1 0.
1. 0.1 0.1
1. 0.1 0.2
1. 0.1 0.3
1. 0.1 0.4
1. 0.1 0.5
1. 0.1 0.6
1. 0.1 0.7
1. 0.1 0.8
1. 0.1 0.9
1. 0.1 1.
1. 0.2 0.
1. 0.2 0.1
1. 0.2 0.2
1. 0.2 0.3
1. 0.2 0.4
1. 0.2 0.5
1. 0.2 0.6
1. 0.2 0.7
1. 0.2 0.8
1. 0.2 0.9
1. 0.2 1.
1. 0.3 0.
1. 0.3 0.1
1. 0.3 0.2
1. 0.3 0.3
1. 0.3 0.4
1. 0.3 0.5
1. 0.3 0.6
1. 0.3 0.7
1. 0.3 0.8
1. 0.3 0.9
1. 0.3 1.
1. 0.4 0.
1. 0.4 0.1
1. 0.4 0.2
1. 0.4 0.3
1. 0.4 0.4
1. 0.4 0.5
1. 0.4 0.6
1. 0.4 0.7
1. 0.4 0.8
1. 0.4 0.9
1. 0.4 1.
1. 0.5 0.
1. 0.5 0.1
1. 0.5 0.2
1. 0.5 0.3
1. 0.5 0.4
1. 0.5 0.5
1. 0.5 0.6
1. 0.5 0.7
1. 0.5 0.8
1. 0.5 0.9
1. 0.5 1.
1. 0.6 0.
1. 0.6 0.1
1. 0.6 0.2
1. 0.6 0.3
1. 0.6 0.4
1. 0.6 0.5
1. 0.6 0.6
1. 0.6 0.7
1. 0.6 0.8
1. 0.6 0.9
1. 0.6 1.
1. 0.7 0.
1. 0.7 0.1
1. 0.7 0.2
1. 0.7 0.3
1. 0.7 0.4
1. 0.7 0.5
1. 0.7 0.6
1. 0.7 0.7
1. 0.7 0.8
1. 0.7 0.9
1. 0.7 1.
1. 0.8 0.
1. 0.8 0.1
1. 0.8 0.2
1. 0.8 0.3
1. 0.8 0.4
1. 0.8 0.5
1. 0.8 0.6
1. 0.8 0.7
1. 0.8 0.8
1. 0.8 0.9
1. 0.8 1.
1. 0.9 0.
1. 0.9 0.1
1. 0.9 0.2
1. 0.9 0.3
1. 0.9 0.4
1. 0.9 0.5
1. 0.9 0.6
1. 0.9 0.7
1. 0.9 0.8
1. 0.9 0.9
1. 0.9 1.
1. 1. 0.
1. 1. 0.1
1. 1. 0.2
1. 1. 0.3
1. 1. 0.4
1. 1. 0.5
1. 1. 0.6
1. 1. 0.7
1. 1. 0.8
1. 1. 0.9
1. 1. 1.
0.55 0.55 0.55
0.75 0.55 0.75
0.65 0.85 0.85
0.85 0.35 0.15
0.75 0.25 0.55
0.35 0.25 0.25
0.35 0.75 0.75
0.15 0.25 0.15
0.85 0.85 0.85
0.65 0.15 0.85
0.85 0.65 0.85
0.75 0.75 0.55
0.25 0.75 0.25
0.85 0.15 0.15
0.85 0.85 0.15
0.85 0.85 0.65
0.15 0.15 0.35
0.15 0.25 0.85
0.05 0. 0.
0. 0. 0.05
0.45 0.15 0.15
0.85 0.55 0.15
0.55 0.75 0.25
0.85 0.85 0.35
0.85 0.15 0.45
0.65 0.15 0.15
0.15 0.45 0.15
0.45 0.85 0.15
0.85 0.25 0.85
0.15 0.65 0.15
0.15 0.85 0.35
0.15 0.65 0.85
0.15 0.85 0.75
0.15 0.85 0.15
0.85 0.15 0.65
0.85 0.45 0.85
0.65 0.85 0.15
0.45 0.15 0.85
0.15 0.45 0.85
0.15 0.85 0.55
0.15 0.15 0.65
0.45 0.85 0.85
0.45 0.45 0.758333
0.270455 0.55 0.55
0.65 0.55 0.865
0.885 0.55 0.75
0.65 1. 0.85
0.65 0.908333 0.75
0.65 0.75 0.908333
0.65 0.85 1.
0.65 0.91875 0.91875
0.55 0.85 0.908333
0.908333 0.35 0.25
0.75 0.35 0.0916667
1. 0.35 0.15
0.85 0.25 0.0916667
0.91875 0.35 0.08125
0.65 0.135 0.55
0.885 0.25 0.55
0.815 0.4 0.65
0.35 0.35 0.135
0.35 0.135 0.35
0.35 0.885 0.75
0.35 0.65 0.865
0.45 0.785 0.55
0. 0.25 0.15
0.0916667 0.25 0.25
0.25 0.25 0.0916667
0.0916667 0.15 0.15
0.15 0.25 0.
0.08125 0.25 0.08125
0.15 0.35 0.0916667
1. 0.85 0.85
0.85 1. 0.85
0.75 0.908333 0.85
0.91875 0.91875 0.85
0.85 0.91875 0.91875
0.91875 0.85 0.91875
0.65 0.15 1.
0.65 0.25 0.908333
0.65 0.0916667 0.75
0.65 0.08125 0.91875
0.55 0.0916667 0.85
0.75 0.15 0.908333
0.75 0.65 0.908333
1. 0.65 0.85
0.85 0.65 1.
0.91875 0.65 0.91875
0.908333 0.75 0.85
0.85 0.55 0.908333
0.65 0.865 0.55
0.885 0.75 0.55
0.6 0.7 0.7
0.785 0.55 0.45
0.35 0.845 0.35
0.155 0.65 0.35
0.25 0.885 0.25
0.115 0.75 0.25
0.35 0.65 0.155
0.25 0.75 0.115
0.75 0.0916667 0.15
0.908333 0.15 0.25
0.85 0. 0.15
1. 0.15 0.15
0.85 0.15 0.
0.91875 0.08125 0.15
0.91875 0.15 0.08125
0.85 0.08125 0.08125
0.75 0.908333 0.15
1. 0.85 0.15
0.85 1. 0.15
0.908333 0.85 0.25
0.908333 0.75 0.15
0.85 0.91875 0.08125
0.91875 0.85 0.08125
0.91875 0.91875 0.15
0.75 0.908333 0.65
0.85 1. 0.65
1. 0.85 0.65
0.908333 0.85 0.75
0.91875 0.91875 0.65
0.85 0.908333 0.55
0. 0.15 0.35
0.125 0.25 0.45
0.08125 0.08125 0.35
0.15 0.0916667 0.45
0.238158 0.147368 0.223684
0.25 0.25 0.908333
0.0916667 0.25 0.75
0.15 0.25 1.
0. 0.25 0.85
0.08125 0.25 0.91875
0.0916667 0.15 0.85
0.05 0.0625 0.
0.0583333 0. 0.0583333
0. 0.0625 0.05
0.45 0. 0.15
0.45 0.0916667 0.25
0.45 0.08125 0.08125
0.45 0.25 0.0916667
0.35 0.0916667 0.15
0.908333 0.55 0.25
0.65 0.55 0.191667
0.75 0.55 0.0916667
0.908333 0.45 0.15
1. 0.55 0.15
0.85 0.55 0.
0.91875 0.55 0.08125
0.85 0.65 0.0916667
0.55 0.885 0.25
0.55 0.75 0.115
1. 0.85 0.35
0.908333 0.75 0.35
0.75 0.908333 0.35
0.91875 0.91875 0.35
0.908333 0.85 0.45
0.75 0.125 0.35
1. 0.15 0.45
0.875 0.25 0.35
0.91875 0.08125 0.45
0.65 0.25 0.0916667
0.65 0. 0.15
0.65 0.0916667 0.25
0.65 0.08125 0.08125
0.55 0.0916667 0.15
0.25 0.45 0.0916667
0.0916667 0.45 0.25
0. 0.45 0.15
0.08125 0.45 0.08125
0.45 1. 0.15
0.35 0.85 0.0916667
0.45 0.91875 0.08125
1. 0.25 0.85
0.85 0.25 1.
0.91875 0.25 0.91875
0.908333 0.25 0.75
0.908333 0.15 0.85
0.0916667 0.55 0.15
0.15 0.65 0.
0. 0.65 0.15
0.08125 0.65 0.08125
0.15 0.908333 0.45
0.125 0.75 0.45
0.15 1. 0.35
0. 0.85 0.35
0.08125 0.91875 0.35
0.15 0.65 1.
0.125 0.55 0.75
0.08125 0.65 0.91875
0.15 0.55 0.908333
0.15 0.75 0.908333
0. 0.85 0.75
0.15 1. 0.75
0.0916667 0.75 0.75
0.08125 0.91875 0.75
0.15 0.908333 0.85
0.15 1. 0.15
0. 0.85 0.15
0.15 0.85 0.
0.08125 0.91875 0.15
0.15 0.91875 0.08125
[...]
POINT_DATA 1800
SCALARS temperature float 1
LOOKUP_TABLE default
0. 0. 0. 0. 0.
0. 0. 0. 0. 0.
0. 0. 0. 0. 0.
0. 0. 0. 0. 0.
0. 0. 0. 0. 0.
0. 0. 0. 0. 0.
0. 0. 0. 0. 0.
0. 0. 0. 0. 0.
0. 0. 0. 0. 0.
0. 0. 0. 0. 0.
0. 0. 0. 0. 0.
0. 0. 0. 0. 0.
0. 0. 0. 0. 0.
0. 0. 0. 0. 0.
0. 0. 0. 0. 0.
0. 0. 0. 0. 0.
0. 0. 0. 0. 0.
0. 0. 0. 0. 0.
0. 0. 0. 0. 0.
0. 0. 0. 0. 0.
0. 0. 0. 0. 0.
0. 0. 0. 0. 0.
0. 0. 0. 0. 0.
0. 0. 0. 0. 0.
0. 0. 0. 0. 0.
0. 0. 0. 0. 0.
0. 0. 0. 0. 0.
0. 0. 0. 0. 0.
0. 0. 0. 0. 0.
0. 0. 0. 0. 0.
0. 0. 0. 0. 0.
0. 0. 0. 0. 0.
0. 0. 0. 0. 0.
0. 0. 0. 0. 0.
0. 0. 0. 0. 0.
0. 0. 0. 0. 0.
0. 0. 0. 0. 0.
0. 0. 0. 0. 0.
0. 0. 0. 0. 0.
0. 0. 0. 0. 0.
0. 0. 0. 0. 0.
0. 0. 0. 0. 0.
0. 0. 0. 0. 0.
0. 0. 0. 0. 0.
0. 0. 0. 0. 0.
0. 0. 0. 0. 0.
0. 0. 0. 0. 0.
0. 0. 0. 0. 0.
0. 0. 0. 0. 0.
0. 0. 0. 0. 0.
0. 0. 0. 0. 0.
0. 0. 0. 0. 0.
0. 0. 0. 0. 0.
0. 0. 0. 0. 0.
0. 0. 0. 0. 0.
0. 0. 0. 0. 0.
0. 0. 0. 0. 0.
0. 0. 0. 0. 0.
0. 0. 0. 0. 0.
0. 0. 0. 0. 0.
0. 0. 0. 0. 0.
0. 0. 0. 0. 0.
0. 0. 0. 0. 0.
0. 0. 0. 0. 0.
0. 0. 0. 0. 0.
0. 0. 0. 0. 0.
0. 0. 0. 0. 0.
0. 0. 0. 0. 0.
0. 0. 0. 0. 0.
0. 0. 0. 0. 0.
0. 0. 0. 0. 0.
0. 0. 0. 0. 0.
0. 0. 0. 0. 0.
0. 0. 0. 0. 0.
0. 0. 0. 0. 0.
0. 0. 0. 0. 0.
0. 0. 0. 0. 0.
0. 0. 0. 0. 0.
0. 0. 0. 0. 0.
0. 0. 0. 0. 0.
0. 0. 0. 0. 0.
0. 0. 0. 0. 0.
0. 0. 0. 0. 0.
0. 0. 0. 0. 0.
0. 0. 0. 0. 0.
0. 0. 0. 0. 0.
0. 0. 0. 0. 0.
0. 0. 0. 0. 0.
0. 0. 0. 0. 0.
0. 0. 0. 0. 0.
0. 0. 0. 0. 0.
0. 0. 0. 0. 0.
0. 0. 0. 0. 0.
0. 0. 0. 0. 0.
0. 0. 0. 0. 0.
0. 0. 0. 0. 0.
0. 0. 0. 0. 0.
0. 0. 0. 0. 0.
0. 0. 0. 0. 0.
0. 0. 0. 0. 0.
0. 0. 0. 0. 0.
0. 0. 0. 0. 0.
0. 0. 0. 0. 0.
0. 0. 0. 0. 0.
0. 0. 0. 0. 0.
0. 0. 0. 0. 0.
0. 0. 0. 0. 0.
0. 0. 0. 0. 0.
0. 0. 0. 0. 0.
0. 0. 0. 0. 0.
0. 0. 0. 0. 0.
0. 0. 0. 0. 0.
0. 0. 0. 0. 0.
0. 0. 0. 0. 0.
0. 0. 0. 0. 0.
0. 0. 0. 0. 0.
0. 0. 0. 0. 0.
0. 0. 0. 0. 0.
0. 0. 0. 0. 0.
0. 0. 0. 0. 0.
0. 0. 1. 0. 0.
0. 0. 0. 0. 0.
0. 0. 0. 0. 0.
0. 0. 0. 0. 0.
0. 0. 0. 0. 0.
0. 0. 0. 0. 0.
0. 0. 0. 0. 0.
0. 0. 0. 0. 0.
0. 0. 0. 0. 0.32164
0.598103 0. 0. 0. 0.
0. 0. 0. 0. 0.
0. 0. 0. 0. 0.
0. 0. 0. 0. 0.
0. 0.0635906 0. 0. 0.
0. 0. 0. 0. 0.
0. 0. 0. 0. 0.
0. 0. 0. 0. 0.
0. 0. 0. 0. 0.
0. 0. 0. 0. 0.
0.0635906 0. 0. 0. 0.
0. 0. 0. 0. 0.
0. 0. 0. 0. 0.
0. 0. 0. 0. 0.
0. 0. 0. 0. 0.
0. 0. 0. 0. 0.
0. 0. 0. 0. 0.
0. 0. 0. 0. 0.
0. 0. 0. 0. 0.
0. 0. 0. 0. 0.
0. 0. 0. 0. 0.
0. 0. 0. 0. 0.
0. 0. 0. 0. 0.
0. 0. 0. 0. 0.
0. 0. 0. 0. 0.
0. 0. 0. 0. 0.
0. 0. 0. 0. 0.
0. 0. 0. 0. 0.
0. 0. 0. 0. 0.
0. 0. 0. 0. 0.
0. 0. 0. 0. 0.
0. 0. 0. 0. 0.
0. 0. 0. 0. 0.
0. 0. 0. 0. 0.
0. 0. 0. 0. 0.
0. 0. 0. 0. 0.
0. 0. 0. 0. 0.
0. 0. 0. 0. 0.
0. 0. 0. 0. 0.
0. 0. 0. 0. 0.
0. 0. 0.910995 0. 0.
0.691287 0. 0. 0. 0.
0. 0. 0. 0. 0.
0. 0. 0. 1. 0.
0. 0. 0. 0. 0.
0. 0. 0. 0. 0.
0. 0. 0. 0. 0.
0.64735 0. 0. 0. 0.
0. 0. 0. 0. 0.
0. 0. 0. 0. 0.
0. 0. 0. 0. 0.
0. 0. 0. 0. 0.
0. 0. 0. 0. 0.
0. 0. 0. 0. 0.
0. 0. 0. 0.54898 0.
0. 1. 0. 0. 0.
0. 0. 0.678279 0. 0.
0. 0. 0. 0. 0.
0. 0. 0. 0. 0.
0. 0. 0. 0. 0.
0. 0. 0. 0. 0.
0. 0. 0. 0. 0.
0. 0. 0. 0. 0.
0. 0. 0. 0. 0.
0. 0. 0. 0. 0.
0. 0. 0. 0. 0.
0. 0. 0. 0. 0.
0. 0. 0. 0. 0.
0. 0. 0. 0. 0.
0. 0. 0. 0. 0.
0. 0. 0. 0. 0.
0. 0. 0. 0. 0.
0. 0. 0. 0. 0.
0. 0. 0. 0. 0.
0. 0. 0. 0. 0.
0. 0. 0. 0. 0.
0. 0. 0. 0. 0.
0. 0. 0. 0. 0.
0. 0. 0. 0. 0.
0. 0. 0. 0. 0.
0. 0. 0. 0. 0.
0. 0. 0. 0. 0.
0. 0. 0. 0. 0.
0. 0. 0. 0. 0.
0. 0. 0. 0. 0.
0. 0. 0. 0. 0.
0. 0. 0. 0. 0.
0. 0. 0. 0. 0.386118
0. 0. 0. 0. 0.
0. 0. 0. 0. 0.
0. 0. 0. 0. 0.
0. 0. 0. 0. 0.
0. 0. 0. 0. 0.
0. 0. 0. 0. 0.
0. 0. 0. 0. 0.
0. 0. 0. 1. 1.
0. 0. 0. 0. 0.
0. 0. 0. 0. 0.
0. 0. 0. 0. 0.
0. 0. 0. 0. 0.653876
0. 0.0448438 0. 0. 0.
0. 0. 0. 0. 0.
0. 0. 1. 0. 0.
0. 0. 0. 0. 0.
0. 0. 0. 0. 0.
0. 0. 0. 0. 0.
0. 0. 1. 1. 0.216229
0. 0. 0. 0. 0.
0. 0. 1. 0. 0.
0. 0. 0. 0. 0.
0. 0. 0. 0. 0.
0. 0. 0. 0. 0.
0. 0. 0. 0. 0.
0. 0. 0. 0. 0.
0. 0. 0. 0. 0.
0. 0. 0. 0. 0.
0. 0. 0. 0. 0.
0. 0. 0. 0. 0.
0. 0. 0. 0. 0.
0. 0. 0. 0. 0.
0. 0. 0. 0. 0.
0. 0. 0. 0. 0.
0. 0. 0. 0. 0.
0. 0. 0. 0. 0.
0. 0. 0. 0.461245 0.
0. 0. 0. 0. 0.
0. 0. 0. 0. 0.
0. 0. 0. 0. 0.
0.279313 0. 0. 0. 0.
0. 0. 0. 0. 0.
0. 0. 0. 0. 0.
0. 0. 0. 0. 0.
0. 0. 0. 0. 0.
0. 0. 0. 0. 0.
0. 0. 0. 0. 0.
0. 0. 0. 0. 0.
0. 0. 0. 0. 0.
0. 0. 0. 0. 0.
0. 0. 0. 0. 0.324709
1. 0.610932 1. 0.198325 1.
0.339149 0. 0. 0. 0.
0. 0. 0.255545 0. 0.
0. 0. 0. 0. 0.
0. 0. 0. 0. 0.
0.123682 0. 0. 0. 0.
0. 0. 0. 0.256991 0.
0. 0. 0.608837 0.911606 0.303575
0. 0. 0. 0. 0.
0. 0. 0. 0. 0.
0. 0.747067 0. 0. 0.
0. 0. 0. 0. 1.
0.994033 0.395869 0.173618 0. 0.
0. 0. 0. 0. 0.
0. 0. 0. 0. 0.
1. 1. 1. 0. 0.
0. 0. 0. 0. 0.
0. 0. 0. 0. 0.
0. 0. 0. 0. 0.0871538
0. 0. 0. 0. 0.
0. 0. 0. 0. 0.
0. 0. 0. 0. 0.
0. 0. 0. 0. 0.
0.714925 0.309362 0. 0. 0.
0. 0. 0. 0. 0.
0. 0. 0. 0. 0.
0. 0. 0. 0. 0.385839
0. 0. 0. 0. 0.
0. 0. 0. 0. 0.
0. 0. 0. 0. 0.
0. 0. 0. 0. 0.
0. 0.330158 0. 0. 0.
0. 0. 0. 0. 0.
0. 0. 0. 0.169895 0.
0. 0. 0. 0. 0.
0. 0. 0. 0. 0.
0. 0. 0. 0. 0.
0. 0. 0. 0. 0.
0. 0. 0. 0. 1.
1. 0.95213 0.475217 1. 0.
0. 0. 1. 0.486299 0.
0. 0. 0.169943 0.977689 0.
0.619981 0.219869 0. 0. 0.
0. 0. 0. 0. 0.434016
0. 0. 0. 0. 0.
1. 0. 0. 0. 0.
0.297084 0.439244 0.757666 0.465919 0.785663
0.191305 0. 0. 0. 0.
0. 0. 0. 1. 0.
0. 0.156784 0. 0. 0.
0. 0.412954 0.11726 0.340685 0.
0.101665 0. 0. 0. 0.
0.932451 0.698291 1. 1. 0.
0. 0. 0.0594674 0.236194 0.
0. 0. 0. 0. 0.
0. 0.886916 0. 0. 0.284546
0. 0. 0. 0. 0.
0. 0. 0. 0. 0.
0. 0. 0.356552 0.253891 0.
0. 0. 0. 0. 0.
0. 0. 0. 0. 0.
0. 0. 0.945562 0. 0.310762
0. 0. 0.328454 0. 0.
0. 0. 0. 0.49296 0.
0.409104 0. 0. 0. 0.
0.176095 0. 0. 0.0661975 0.
0. 0. 0. 0. 1.
1. 1. 1. 0.250356 1.
0.434869 0.0774309 1. 0.274434 0.
1. 1. 0.951217 1. 0.
0. 0.752147 0. 0.300267 0.602789
0. 0. 0.29559 0. 1.
1. 0.658914 0.758214 0. 0.
0. 0.154109 0.644531 0. 0.
1. 0.717654 0. 0.0517699 0.
0.655165 0.0762563 0. 0. 0.
0. 0. 0. 0. 0.257105
0.0213868 0.225628 0. 0. 0.
0. 0.986118 0.0663941 0. 0.
0.019579 0. 0. 0. 0.
0. 0. 0. 0. 0.
0.214606 0. 0. 0. 0.481469
0. 0. 0. 0.612316 0.
0.0178532 0.875681 1. 1. 0.
0. 1. 0.285116 1. 1.
1. 1. 0.480335 0.0885787 0.901144
0. 0.147373 1. 1. 0.677063
0.296567 1. 0. 0.668825 0.
0. 0. 0.136919 0. 0.
1. 0. 0. 0.620089 0.
0. 0.0848693 0. 1. 0.343893
0. 1. 0.519459 0. 1.